# vtk DataFile Version 3.0
Mesh exported from ClimateFlowSolver
ASCII
DATASET UNSTRUCTURED_GRID
POINTS 274 float
677449 4581389 523.10400390625
677474 4581389 523.10400390625
677449 4581414 523.10400390625
677474 4581414 523.10400390625
677449 4581389 513.4790115356445
677474 4581389 513.4790115356445
677449 4581414 513.4790115356445
677474 4581414 513.4790115356445
677449 4581439 523.10400390625
677474 4581439 523.10400390625
677449 4581439 513.4790115356445
677474 4581439 513.4790115356445
677449 4581464 523.10400390625
677474 4581464 523.10400390625
677449 4581464 513.4790115356445
677474 4581464 513.4790115356445
677449 4581489 523.10400390625
677474 4581489 523.10400390625
677449 4581489 513.4790115356445
677474 4581489 513.4790115356445
677449 4581514 523.10400390625
677474 4581514 523.10400390625
677449 4581514 513.4790115356445
677474 4581514 513.4790115356445
677449 4581539 523.10400390625
677474 4581539 523.10400390625
677449 4581539 513.4790115356445
677474 4581539 513.4790115356445
677499 4581389 523.10400390625
677499 4581414 523.10400390625
677499 4581389 513.4790115356445
677499 4581414 513.4790115356445
677499 4581439 523.10400390625
677499 4581439 513.4790115356445
677499 4581464 523.10400390625
677499 4581464 513.4790115356445
677499 4581489 523.10400390625
677499 4581489 513.4790115356445
677499 4581514 523.10400390625
677499 4581514 513.4790115356445
677499 4581539 523.10400390625
677499 4581539 513.4790115356445
677524 4581389 523.10400390625
677524 4581414 523.10400390625
677524 4581389 513.4790115356445
677524 4581414 513.4790115356445
677499 4581389 503.85401916503906
677524 4581389 503.85401916503906
677499 4581414 503.85401916503906
677524 4581414 503.85401916503906
677524 4581439 523.10400390625
677524 4581439 513.4790115356445
677499 4581439 503.85401916503906
677524 4581439 503.85401916503906
677524 4581464 523.10400390625
677524 4581464 513.4790115356445
677524 4581489 523.10400390625
677524 4581489 513.4790115356445
677524 4581514 523.10400390625
677524 4581514 513.4790115356445
677524 4581539 523.10400390625
677524 4581539 513.4790115356445
677549 4581389 523.10400390625
677549 4581414 523.10400390625
677549 4581389 513.4790115356445
677549 4581414 513.4790115356445
677549 4581389 503.85401916503906
677549 4581414 503.85401916503906
677549 4581439 523.10400390625
677549 4581439 513.4790115356445
677549 4581439 503.85401916503906
677549 4581464 523.10400390625
677549 4581464 513.4790115356445
677549 4581489 523.10400390625
677549 4581489 513.4790115356445
677549 4581514 523.10400390625
677549 4581514 513.4790115356445
677549 4581539 523.10400390625
677549 4581539 513.4790115356445
677524 4581514 503.85401916503906
677549 4581514 503.85401916503906
677524 4581539 503.85401916503906
677549 4581539 503.85401916503906
677574 4581389 523.10400390625
677574 4581414 523.10400390625
677574 4581389 513.4790115356445
677574 4581414 513.4790115356445
677574 4581389 503.85401916503906
677574 4581414 503.85401916503906
677574 4581439 523.10400390625
677574 4581439 513.4790115356445
677574 4581439 503.85401916503906
677574 4581464 523.10400390625
677574 4581464 513.4790115356445
677574 4581489 523.10400390625
677574 4581489 513.4790115356445
677574 4581514 523.10400390625
677574 4581514 513.4790115356445
677574 4581539 523.10400390625
677574 4581539 513.4790115356445
677574 4581514 503.85401916503906
677574 4581539 503.85401916503906
677549 4581514 494.2290267944336
677574 4581514 494.2290267944336
677549 4581539 494.2290267944336
677574 4581539 494.2290267944336
677599 4581389 523.10400390625
677599 4581414 523.10400390625
677599 4581389 513.4790115356445
677599 4581414 513.4790115356445
677599 4581389 503.85401916503906
677599 4581414 503.85401916503906
677574 4581389 494.2290267944336
677599 4581389 494.2290267944336
677574 4581414 494.2290267944336
677599 4581414 494.2290267944336
677574 4581389 484.6040344238281
677599 4581389 484.6040344238281
677574 4581414 484.6040344238281
677599 4581414 484.6040344238281
677599 4581439 523.10400390625
677599 4581439 513.4790115356445
677599 4581439 503.85401916503906
677574 4581439 494.2290267944336
677599 4581439 494.2290267944336
677599 4581464 523.10400390625
677599 4581464 513.4790115356445
677574 4581464 503.85401916503906
677599 4581464 503.85401916503906
677599 4581489 523.10400390625
677599 4581489 513.4790115356445
677574 4581489 503.85401916503906
677599 4581489 503.85401916503906
677599 4581514 523.10400390625
677599 4581514 513.4790115356445
677599 4581514 503.85401916503906
677574 4581489 494.2290267944336
677599 4581489 494.2290267944336
677599 4581514 494.2290267944336
677599 4581539 523.10400390625
677599 4581539 513.4790115356445
677599 4581539 503.85401916503906
677599 4581539 494.2290267944336
677574 4581514 484.6040344238281
677599 4581514 484.6040344238281
677574 4581539 484.6040344238281
677599 4581539 484.6040344238281
677624 4581389 523.10400390625
677624 4581414 523.10400390625
677624 4581389 513.4790115356445
677624 4581414 513.4790115356445
677624 4581389 503.85401916503906
677624 4581414 503.85401916503906
677624 4581389 494.2290267944336
677624 4581414 494.2290267944336
677624 4581389 484.6040344238281
677624 4581414 484.6040344238281
677624 4581439 523.10400390625
677624 4581439 513.4790115356445
677624 4581439 503.85401916503906
677624 4581439 494.2290267944336
677624 4581464 523.10400390625
677624 4581464 513.4790115356445
677624 4581464 503.85401916503906
677624 4581489 523.10400390625
677624 4581489 513.4790115356445
677624 4581489 503.85401916503906
677624 4581514 523.10400390625
677624 4581514 513.4790115356445
677624 4581514 503.85401916503906
677624 4581539 523.10400390625
677624 4581539 513.4790115356445
677624 4581539 503.85401916503906
677649 4581389 523.10400390625
677649 4581414 523.10400390625
677649 4581389 513.4790115356445
677649 4581414 513.4790115356445
677649 4581389 503.85401916503906
677649 4581414 503.85401916503906
677649 4581389 494.2290267944336
677649 4581414 494.2290267944336
677649 4581389 484.6040344238281
677649 4581414 484.6040344238281
677649 4581439 523.10400390625
677649 4581439 513.4790115356445
677649 4581439 503.85401916503906
677649 4581439 494.2290267944336
677624 4581439 484.6040344238281
677649 4581439 484.6040344238281
677649 4581464 523.10400390625
677649 4581464 513.4790115356445
677649 4581464 503.85401916503906
677649 4581489 523.10400390625
677649 4581489 513.4790115356445
677649 4581489 503.85401916503906
677649 4581514 523.10400390625
677649 4581514 513.4790115356445
677649 4581514 503.85401916503906
677649 4581539 523.10400390625
677649 4581539 513.4790115356445
677649 4581539 503.85401916503906
677674 4581389 523.10400390625
677674 4581414 523.10400390625
677674 4581389 513.4790115356445
677674 4581414 513.4790115356445
677674 4581389 503.85401916503906
677674 4581414 503.85401916503906
677674 4581389 494.2290267944336
677674 4581414 494.2290267944336
677674 4581439 523.10400390625
677674 4581439 513.4790115356445
677674 4581439 503.85401916503906
677674 4581464 523.10400390625
677674 4581464 513.4790115356445
677674 4581464 503.85401916503906
677674 4581489 523.10400390625
677674 4581489 513.4790115356445
677674 4581489 503.85401916503906
677674 4581514 523.10400390625
677674 4581514 513.4790115356445
677674 4581539 523.10400390625
677674 4581539 513.4790115356445
677699 4581389 523.10400390625
677699 4581414 523.10400390625
677699 4581389 513.4790115356445
677699 4581414 513.4790115356445
677699 4581389 503.85401916503906
677699 4581414 503.85401916503906
677699 4581389 494.2290267944336
677699 4581414 494.2290267944336
677699 4581439 523.10400390625
677699 4581439 513.4790115356445
677699 4581439 503.85401916503906
677699 4581464 523.10400390625
677699 4581464 513.4790115356445
677699 4581464 503.85401916503906
677699 4581489 523.10400390625
677699 4581489 513.4790115356445
677699 4581489 503.85401916503906
677699 4581514 523.10400390625
677699 4581514 513.4790115356445
677699 4581539 523.10400390625
677699 4581539 513.4790115356445
677724 4581389 523.10400390625
677724 4581414 523.10400390625
677724 4581389 513.4790115356445
677724 4581414 513.4790115356445
677724 4581439 523.10400390625
677724 4581439 513.4790115356445
677724 4581414 503.85401916503906
677724 4581439 503.85401916503906
677724 4581464 523.10400390625
677724 4581464 513.4790115356445
677724 4581464 503.85401916503906
677724 4581489 523.10400390625
677724 4581489 513.4790115356445
677724 4581514 523.10400390625
677724 4581514 513.4790115356445
677724 4581539 523.10400390625
677724 4581539 513.4790115356445
677749 4581389 523.10400390625
677749 4581414 523.10400390625
677749 4581389 513.4790115356445
677749 4581414 513.4790115356445
677749 4581439 523.10400390625
677749 4581439 513.4790115356445
677749 4581464 523.10400390625
677749 4581464 513.4790115356445
677749 4581489 523.10400390625
677749 4581489 513.4790115356445
677749 4581514 523.10400390625
677749 4581514 513.4790115356445
677749 4581539 523.10400390625
677749 4581539 513.4790115356445
CELLS 124 1116
8 0 1 2 3 4 5 6 7
8 2 3 8 9 6 7 10 11
8 8 9 12 13 10 11 14 15
8 12 13 16 17 14 15 18 19
8 16 17 20 21 18 19 22 23
8 20 21 24 25 22 23 26 27
8 1 28 3 29 5 30 7 31
8 3 29 9 32 7 31 11 33
8 9 32 13 34 11 33 15 35
8 13 34 17 36 15 35 19 37
8 17 36 21 38 19 37 23 39
8 21 38 25 40 23 39 27 41
8 28 42 29 43 30 44 31 45
8 30 44 31 45 46 47 48 49
8 29 43 32 50 31 45 33 51
8 31 45 33 51 48 49 52 53
8 32 50 34 54 33 51 35 55
8 34 54 36 56 35 55 37 57
8 36 56 38 58 37 57 39 59
8 38 58 40 60 39 59 41 61
8 42 62 43 63 44 64 45 65
8 44 64 45 65 47 66 49 67
8 43 63 50 68 45 65 51 69
8 45 65 51 69 49 67 53 70
8 50 68 54 71 51 69 55 72
8 54 71 56 73 55 72 57 74
8 56 73 58 75 57 74 59 76
8 58 75 60 77 59 76 61 78
8 59 76 61 78 79 80 81 82
8 62 83 63 84 64 85 65 86
8 64 85 65 86 66 87 67 88
8 63 84 68 89 65 86 69 90
8 65 86 69 90 67 88 70 91
8 68 89 71 92 69 90 72 93
8 71 92 73 94 72 93 74 95
8 73 94 75 96 74 95 76 97
8 75 96 77 98 76 97 78 99
8 76 97 78 99 80 100 82 101
8 80 100 82 101 102 103 104 105
8 83 106 84 107 85 108 86 109
8 85 108 86 109 87 110 88 111
8 87 110 88 111 112 113 114 115
8 112 113 114 115 116 117 118 119
8 84 107 89 120 86 109 90 121
8 86 109 90 121 88 111 91 122
8 88 111 91 122 114 115 123 124
8 89 120 92 125 90 121 93 126
8 90 121 93 126 91 122 127 128
8 92 125 94 129 93 126 95 130
8 93 126 95 130 127 128 131 132
8 94 129 96 133 95 130 97 134
8 95 130 97 134 131 132 100 135
8 131 132 100 135 136 137 103 138
8 96 133 98 139 97 134 99 140
8 97 134 99 140 100 135 101 141
8 100 135 101 141 103 138 105 142
8 103 138 105 142 143 144 145 146
8 106 147 107 148 108 149 109 150
8 108 149 109 150 110 151 111 152
8 110 151 111 152 113 153 115 154
8 113 153 115 154 117 155 119 156
8 107 148 120 157 109 150 121 158
8 109 150 121 158 111 152 122 159
8 111 152 122 159 115 154 124 160
8 120 157 125 161 121 158 126 162
8 121 158 126 162 122 159 128 163
8 125 161 129 164 126 162 130 165
8 126 162 130 165 128 163 132 166
8 129 164 133 167 130 165 134 168
8 130 165 134 168 132 166 135 169
8 133 167 139 170 134 168 140 171
8 134 168 140 171 135 169 141 172
8 147 173 148 174 149 175 150 176
8 149 175 150 176 151 177 152 178
8 151 177 152 178 153 179 154 180
8 153 179 154 180 155 181 156 182
8 148 174 157 183 150 176 158 184
8 150 176 158 184 152 178 159 185
8 152 178 159 185 154 180 160 186
8 154 180 160 186 156 182 187 188
8 157 183 161 189 158 184 162 190
8 158 184 162 190 159 185 163 191
8 161 189 164 192 162 190 165 193
8 162 190 165 193 163 191 166 194
8 164 192 167 195 165 193 168 196
8 165 193 168 196 166 194 169 197
8 167 195 170 198 168 196 171 199
8 168 196 171 199 169 197 172 200
8 173 201 174 202 175 203 176 204
8 175 203 176 204 177 205 178 206
8 177 205 178 206 179 207 180 208
8 174 202 183 209 176 204 184 210
8 176 204 184 210 178 206 185 211
8 183 209 189 212 184 210 190 213
8 184 210 190 213 185 211 191 214
8 189 212 192 215 190 213 193 216
8 190 213 193 216 191 214 194 217
8 192 215 195 218 193 216 196 219
8 195 218 198 220 196 219 199 221
8 201 222 202 223 203 224 204 225
8 203 224 204 225 205 226 206 227
8 205 226 206 227 207 228 208 229
8 202 223 209 230 204 225 210 231
8 204 225 210 231 206 227 211 232
8 209 230 212 233 210 231 213 234
8 210 231 213 234 211 232 214 235
8 212 233 215 236 213 234 216 237
8 213 234 216 237 214 235 217 238
8 215 236 218 239 216 237 219 240
8 218 239 220 241 219 240 221 242
8 222 243 223 244 224 245 225 246
8 223 244 230 247 225 246 231 248
8 225 246 231 248 227 249 232 250
8 230 247 233 251 231 248 234 252
8 231 248 234 252 232 250 235 253
8 233 251 236 254 234 252 237 255
8 236 254 239 256 237 255 240 257
8 239 256 241 258 240 257 242 259
8 243 260 244 261 245 262 246 263
8 244 261 247 264 246 263 248 265
8 247 264 251 266 248 265 252 267
8 251 266 254 268 252 267 255 269
8 254 268 256 270 255 269 257 271
8 256 270 258 272 257 271 259 273
CELL_TYPES 124
12
12
12
12
12
12
12
12
12
12
12
12
12
12
12
12
12
12
12
12
12
12
12
12
12
12
12
12
12
12
12
12
12
12
12
12
12
12
12
12
12
12
12
12
12
12
12
12
12
12
12
12
12
12
12
12
12
12
12
12
12
12
12
12
12
12
12
12
12
12
12
12
12
12
12
12
12
12
12
12
12
12
12
12
12
12
12
12
12
12
12
12
12
12
12
12
12
12
12
12
12
12
12
12
12
12
12
12
12
12
12
12
12
12
12
12
12
12
12
12
12
12
12
12
CELL_DATA 124
SCALARS cell_id int 1
LOOKUP_TABLE default
0
1
2
3
4
5
6
7
8
9
10
11
12
13
14
15
16
17
18
19
20
21
22
23
24
25
26
27
28
29
30
31
32
33
34
35
36
37
38
39
40
41
42
43
44
45
46
47
48
49
50
51
52
53
54
55
56
57
58
59
60
61
62
63
64
65
66
67
68
69
70
71
72
73
74
75
76
77
78
79
80
81
82
83
84
85
86
87
88
89
90
91
92
93
94
95
96
97
98
99
100
101
102
103
104
105
106
107
108
109
110
111
112
113
114
115
116
117
118
119
120
121
122
123
FIELD FieldData 1
wall_types 1 124 int
1
1
1
1
1
1
1
1
1
1
1
1
1
3
1
3
1
1
1
1
1
3
1
3
1
1
1
1
3
1
3
1
3
1
1
1
1
3
3
1
3
3
3
1
3
3
1
3
1
3
1
3
3
1
3
3
3
1
3
3
3
1
3
3
1
3
1
3
1
3
1
3
1
3
3
3
1
3
3
3
1
3
1
3
1
3
1
3
1
3
3
1
3
1
3
1
3
1
1
1
3
3
1
3
1
3
1
3
1
1
1
1
3
1
3
1
1
1
1
1
1
1
1
1
